LAMMPS data file, timestep = 0

648 atoms
432 bonds
216 angles
2 atom types
1 bond types
1 angle types

0.0 18.621000 xlo xhi
0.0 18.621000 ylo yhi
0.0 18.621000 zlo zhi

Masses

  1 1.007825  # h* water hydrogen
  2 15.99949  # o* water oxygen

Pair Coeffs # lj/charmm

 1  0.0 1.0
 2  0.1554 3.165541 # 3.5532

Bond Coeffs # harmonic

 1 554.1349 1.0

Angle Coeffs # harmonic

 1 45.7696 109.47 # h* o* h*

Atoms

  1 1 2 -0.820000 2.300000 6.280000 1.130000
  2 1 1 0.410000 1.370000 6.260000 1.500000
  3 1 1 0.410000 2.310000 5.890000 0.210000
  4 2 2 -0.820000 2.250000 2.750000 -8.660000
  5 2 1 0.410000 2.600000 2.580000 -7.740000
  6 2 1 0.410000 1.370000 2.300000 -8.780000
  7 3 2 -0.820000 0.190000 3.680000 6.470000
  8 3 1 0.410000 -0.630000 4.110000 6.860000
  9 3 1 0.410000 -0.090000 2.950000 5.840000
 10 4 2 -0.820000 5.690000 -5.870000 -6.970000
 11 4 1 0.410000 4.760000 -5.940000 -7.340000
 12 4 1 0.410000 5.800000 -4.980000 -6.530000
 13 5 2 -0.820000 -3.070000 -3.510000 7.030000
 14 5 1 0.410000 -3.640000 -3.670000 7.840000
 15 5 1 0.410000 -3.660000 -3.410000 6.230000
 16 6 2 -0.820000 -1.190000 6.180000 8.560000
 17 6 1 0.410000 -0.860000 7.120000 8.560000
 18 6 1 0.410000 -0.680000 5.640000 9.220000
 19 7 2 -0.820000 -7.270000 7.030000 7.170000
 20 7 1 0.410000 -6.700000 7.810000 6.920000
 21 7 1 0.410000 -7.870000 7.290000 7.930000
 22 8 2 -0.820000 -1.070000 6.070000 2.310000
 23 8 1 0.410000 -1.190000 5.940000 1.320000
 24 8 1 0.410000 -1.370000 5.260000 2.800000
 25 9 2 -0.820000 7.680000 -7.180000 -8.390000
 26 9 1 0.410000 6.900000 -7.010000 -7.790000
 27 9 1 0.410000 8.020000 -6.310000 -8.750000
 28 10 2 -0.820000 8.500000 7.980000 -0.390000
 29 10 1 0.410000 8.460000 8.740000 0.260000
 30 10 1 0.410000 8.720000 8.340000 -1.300000
 31 11 2 -0.820000 6.850000 -8.500000 6.650000
 32 11 1 0.410000 7.540000 -8.660000 7.350000
 33 11 1 0.410000 6.120000 -7.930000 7.030000
 34 12 2 -0.820000 6.860000 -7.010000 -0.590000
 35 12 1 0.410000 7.460000 -6.220000 -0.450000
 36 12 1 0.410000 6.000000 -6.700000 -1.000000
 37 13 2 -0.820000 3.350000 -4.270000 -8.010000
 38 13 1 0.410000 2.570000 -4.580000 -8.540000
 39 13 1 0.410000 3.930000 -3.690000 -8.580000
 40 14 2 -0.820000 -4.020000 -3.570000 -5.230000
 41 14 1 0.410000 -3.780000 -2.630000 -4.970000
 42 14 1 0.410000 -4.180000 -4.110000 -4.410000
 43 15 2 -0.820000 4.380000 3.920000 -3.630000
 44 15 1 0.410000 5.200000 3.360000 -3.540000
 45 15 1 0.410000 3.570000 3.340000 -3.590000
 46 16 2 -0.820000 -2.590000 4.470000 7.370000
 47 16 1 0.410000 -3.330000 4.930000 6.870000
 48 16 1 0.410000 -2.080000 5.150000 7.900000
 49 17 2 -0.820000 2.310000 -1.490000 4.830000
 50 17 1 0.410000 2.650000 -0.720000 5.370000
 51 17 1 0.410000 2.750000 -1.490000 3.930000
 52 18 2 -0.820000 -7.350000 -5.210000 -1.720000
 53 18 1 0.410000 -6.880000 -5.210000 -0.840000
 54 18 1 0.410000 -7.830000 -6.080000 -1.830000
 55 19 2 -0.820000 2.300000 -4.280000 5.380000
 56 19 1 0.410000 2.040000 -3.320000 5.380000
 57 19 1 0.410000 1.590000 -4.820000 5.830000
 58 20 2 -0.820000 2.400000 -7.710000 8.860000
 59 20 1 0.410000 2.540000 -8.550000 9.380000
 60 20 1 0.410000 1.850000 -7.070000 9.410000
 61 21 2 -0.820000 6.200000 -0.760000 -4.230000
 62 21 1 0.410000 5.280000 -0.930000 -3.880000
 63 21 1 0.410000 6.480000 0.160000 -3.970000
 64 22 2 -0.820000 6.060000 -8.980000 1.230000
 65 22 1 0.410000 6.130000 -8.140000 0.690000
 66 22 1 0.410000 6.520000 -8.850000 2.110000
 67 23 2 -0.820000 -2.680000 1.140000 -3.820000
 68 23 1 0.410000 -2.860000 1.810000 -4.540000
 69 23 1 0.410000 -2.710000 1.600000 -2.930000
 70 24 2 -0.820000 1.220000 6.430000 5.630000
 71 24 1 0.410000 0.770000 5.550000 5.800000
 72 24 1 0.410000 1.210000 6.970000 6.470000
 73 25 2 -0.820000 -0.200000 -0.950000 3.590000
 74 25 1 0.410000 0.340000 -1.240000 4.390000
 75 25 1 0.410000 0.100000 -0.050000 3.300000
 76 26 2 -0.820000 0.270000 -2.660000 1.170000
 77 26 1 0.410000 0.080000 -3.620000 1.380000
 78 26 1 0.410000 -0.060000 -2.080000 1.920000
 79 27 2 -0.820000 -1.730000 9.220000 6.120000
 80 27 1 0.410000 -0.780000 8.930000 6.200000
 81 27 1 0.410000 -1.810000 9.870000 5.370000
 82 28 2 -0.820000 -2.210000 -7.540000 4.320000
 83 28 1 0.410000 -1.350000 -7.520000 3.800000
 84 28 1 0.410000 -2.070000 -7.070000 5.200000
 85 29 2 -0.820000 1.130000 7.370000 -2.650000
 86 29 1 0.410000 2.010000 7.240000 -2.200000
 87 29 1 0.410000 1.000000 8.340000 -2.870000
 88 30 2 -0.820000 6.130000 -4.970000 7.260000
 89 30 1 0.410000 5.640000 -5.840000 7.350000
 90 30 1 0.410000 5.900000 -4.540000 6.390000
 91 31 2 -0.820000 -5.690000 -6.340000 -4.390000
 92 31 1 0.410000 -5.320000 -7.070000 -4.970000
 93 31 1 0.410000 -5.170000 -6.290000 -3.540000
 94 32 2 -0.820000 8.090000 0.040000 5.020000
 95 32 1 0.410000 8.490000 0.950000 4.930000
 96 32 1 0.410000 7.090000 0.120000 5.080000
 97 33 2 -0.820000 1.970000 -8.860000 -5.980000
 98 33 1 0.410000 2.860000 -9.310000 -6.120000
 99 33 1 0.410000 1.240000 -9.510000 -6.170000
100 34 2 -0.820000 -3.370000 -8.630000 1.900000
101 34 1 0.410000 -4.000000 -9.390000 2.030000
102 34 1 0.410000 -2.890000 -8.450000 2.760000
103 35 2 -0.820000 -6.750000 -0.700000 -2.460000
104 35 1 0.410000 -6.510000 -0.100000 -3.220000
105 35 1 0.410000 -6.680000 -1.650000 -2.760000
106 36 2 -0.820000 3.170000 2.510000 -0.610000
107 36 1 0.410000 3.880000 3.220000 -0.550000
108 36 1 0.410000 2.290000 2.900000 -0.330000
109 37 2 -0.820000 -3.960000 -4.450000 -9.090000
110 37 1 0.410000 -4.550000 -4.390000 -8.290000
111 37 1 0.410000 -4.110000 -5.330000 -9.550000
112 38 2 -0.820000 -1.950000 -1.480000 5.720000
113 38 1 0.410000 -2.360000 -1.710000 4.840000
114 38 1 0.410000 -2.130000 -2.220000 6.370000
115 39 2 -0.820000 5.980000 7.290000 2.700000
116 39 1 0.410000 6.220000 7.980000 2.020000
117 39 1 0.410000 5.200000 7.620000 3.240000
118 40 2 -0.820000 -5.810000 3.450000 -9.180000
119 40 1 0.410000 -6.670000 2.950000 -9.310000
120 40 1 0.410000 -5.190000 2.910000 -8.620000
121 41 2 -0.820000 -2.860000 -2.000000 3.070000
122 41 1 0.410000 -1.970000 -1.540000 3.100000
123 41 1 0.410000 -3.070000 -2.240000 2.120000
124 42 2 -0.820000 8.070000 6.050000 -3.970000
125 42 1 0.410000 7.600000 6.020000 -3.080000
126 42 1 0.410000 7.560000 5.500000 -4.630000
127 43 2 -0.820000 -4.680000 4.690000 -1.880000
128 43 1 0.410000 -4.880000 5.120000 -1.000000
129 43 1 0.410000 -3.900000 4.070000 -1.790000
130 44 2 -0.820000 -8.890000 8.900000 -2.900000
131 44 1 0.410000 -8.430000 8.060000 -3.190000
132 44 1 0.410000 -9.450000 9.240000 -3.650000
133 45 2 -0.820000 -8.710000 4.100000 -6.200000
134 45 1 0.410000 -9.480000 4.440000 -5.660000
135 45 1 0.410000 -9.050000 3.590000 -6.990000
136 46 2 -0.820000 -8.210000 7.010000 4.290000
137 46 1 0.410000 -7.950000 6.970000 5.250000
138 46 1 0.410000 -9.060000 6.500000 4.150000
139 47 2 -0.820000 0.760000 8.110000 7.890000
140 47 1 0.410000 1.750000 7.990000 7.980000
141 47 1 0.410000 0.520000 9.060000 8.100000
142 48 2 -0.820000 1.300000 -0.410000 -2.910000
143 48 1 0.410000 1.200000 -0.560000 -1.920000
144 48 1 0.410000 0.440000 -0.050000 -3.270000
145 49 2 -0.820000 8.650000 3.480000 1.950000
146 49 1 0.410000 9.240000 4.110000 1.460000
147 49 1 0.410000 8.840000 2.540000 1.660000
148 50 2 -0.820000 -1.430000 5.850000 -0.310000
149 50 1 0.410000 -1.690000 6.740000 -0.670000
150 50 1 0.410000 -1.450000 5.170000 -1.040000
151 51 2 -0.820000 -5.000000 -7.180000 5.450000
152 51 1 0.410000 -4.170000 -7.470000 4.970000
153 51 1 0.410000 -5.490000 -6.510000 4.890000
154 52 2 -0.820000 5.500000 1.960000 8.850000
155 52 1 0.410000 5.450000 1.910000 9.850000
156 52 1 0.410000 5.520000 2.920000 8.560000
157 53 2 -0.820000 -8.540000 -4.060000 4.770000
158 53 1 0.410000 -9.000000 -3.340000 4.250000
159 53 1 0.410000 -8.580000 -3.860000 5.750000
160 54 2 -0.820000 3.510000 -0.610000 8.530000
161 54 1 0.410000 4.010000 -1.470000 8.590000
162 54 1 0.410000 4.160000 0.160000 8.500000
163 55 2 -0.820000 -0.670000 -7.960000 8.730000
164 55 1 0.410000 -1.290000 -8.110000 7.970000
165 55 1 0.410000 -1.190000 -7.850000 9.580000
166 56 2 -0.820000 -6.350000 -3.120000 -3.560000
167 56 1 0.410000 -6.290000 -3.890000 -2.920000
168 56 1 0.410000 -6.870000 -3.380000 -4.360000
169 57 2 -0.820000 3.210000 -9.190000 2.420000
170 57 1 0.410000 4.030000 -8.800000 2.000000
171 57 1 0.410000 2.940000 -10.010000 1.930000
172 58 2 -0.820000 -4.040000 7.350000 7.280000
173 58 1 0.410000 -4.090000 6.700000 8.030000
174 58 1 0.410000 -3.240000 7.940000 7.410000
175 59 2 -0.820000 4.610000 -5.960000 -1.350000
176 59 1 0.410000 4.110000 -5.950000 -2.210000
177 59 1 0.410000 3.980000 -6.140000 -0.590000
178 60 2 -0.820000 -7.510000 -0.860000 2.370000
179 60 1 0.410000 -8.110000 -1.480000 2.870000
180 60 1 0.410000 -7.200000 -1.300000 1.520000
181 61 2 -0.820000 2.020000 2.850000 -3.640000
182 61 1 0.410000 1.220000 3.450000 -3.770000
183 61 1 0.410000 1.920000 2.360000 -2.780000
184 62 2 -0.820000 -2.300000 -4.850000 0.810000
185 62 1 0.410000 -2.620000 -3.910000 0.710000
186 62 1 0.410000 -3.060000 -5.480000 0.690000
187 63 2 -0.820000 4.640000 -1.190000 3.230000
188 63 1 0.410000 4.970000 -0.800000 4.090000
189 63 1 0.410000 5.400000 -1.260000 2.580000
190 64 2 -0.820000 -4.620000 1.070000 4.260000
191 64 1 0.410000 -4.860000 0.700000 3.360000
192 64 1 0.410000 -3.630000 1.230000 4.300000
193 65 2 -0.820000 2.490000 -0.770000 -6.210000
194 65 1 0.410000 3.060000 -1.420000 -5.710000
195 65 1 0.410000 2.330000 -1.100000 -7.140000
196 66 2 -0.820000 -9.220000 -1.640000 9.040000
197 66 1 0.410000 -8.420000 -2.210000 9.250000
198 66 1 0.410000 -9.710000 -2.040000 8.270000
199 67 2 -0.820000 3.820000 7.000000 4.800000
200 67 1 0.410000 4.270000 6.100000 4.770000
201 67 1 0.410000 2.880000 6.890000 5.130000
202 68 2 -0.820000 -3.150000 2.220000 -1.330000
203 68 1 0.410000 -3.200000 2.590000 -0.410000
204 68 1 0.410000 -3.870000 1.530000 -1.450000
205 69 2 -0.820000 6.140000 1.220000 1.170000
206 69 1 0.410000 7.120000 1.000000 1.240000
207 69 1 0.410000 5.830000 1.050000 0.240000
208 70 2 -0.820000 7.810000 2.640000 -1.130000
209 70 1 0.410000 8.480000 2.030000 -0.700000
210 70 1 0.410000 7.080000 2.830000 -0.480000
211 71 2 -0.820000 8.880000 -3.480000 -6.670000
212 71 1 0.410000 8.650000 -3.730000 -7.610000
213 71 1 0.410000 9.490000 -4.170000 -6.280000
214 72 2 -0.820000 -5.110000 5.900000 -4.290000
215 72 1 0.410000 -4.830000 5.470000 -3.440000
216 72 1 0.410000 -4.860000 6.860000 -4.280000
217 73 2 -0.820000 8.030000 -4.600000 9.240000
218 73 1 0.410000 8.930000 -4.460000 8.820000
219 73 1 0.410000 7.320000 -4.580000 8.530000
220 74 2 -0.820000 9.220000 5.030000 8.990000
221 74 1 0.410000 8.970000 4.940000 8.030000
222 74 1 0.410000 9.700000 4.210000 9.300000
223 75 2 -0.820000 5.390000 0.640000 5.120000
224 75 1 0.410000 4.580000 0.650000 5.700000
225 75 1 0.410000 5.420000 1.470000 4.570000
226 76 2 -0.820000 -4.280000 -6.740000 0.410000
227 76 1 0.410000 -3.960000 -7.500000 0.980000
228 76 1 0.410000 -5.200000 -6.470000 0.710000
229 77 2 -0.820000 2.970000 0.350000 1.710000
230 77 1 0.410000 3.460000 1.190000 1.500000
231 77 1 0.410000 3.590000 -0.300000 2.160000
232 78 2 -0.820000 -9.270000 2.360000 4.800000
233 78 1 0.410000 -9.750000 2.770000 4.020000
234 78 1 0.410000 -8.280000 2.340000 4.610000
235 79 2 -0.820000 -7.860000 6.830000 -3.980000
236 79 1 0.410000 -8.660000 6.220000 -3.950000
237 79 1 0.410000 -7.050000 6.300000 -4.220000
238 80 2 -0.820000 -6.350000 -2.920000 7.930000
239 80 1 0.410000 -6.140000 -2.180000 7.280000
240 80 1 0.410000 -5.670000 -2.920000 8.660000
241 81 2 -0.820000 4.590000 -7.100000 7.410000
242 81 1 0.410000 3.880000 -7.370000 8.060000
243 81 1 0.410000 4.330000 -7.380000 6.480000
244 82 2 -0.820000 -5.910000 -0.650000 5.910000
245 82 1 0.410000 -5.470000 -0.010000 5.270000
246 82 1 0.410000 -6.410000 -0.130000 6.610000
247 83 2 -0.820000 -8.300000 5.490000 0.160000
248 83 1 0.410000 -8.710000 6.310000 -0.230000
249 83 1 0.410000 -7.660000 5.750000 0.890000
250 84 2 -0.820000 0.780000 5.560000 -4.760000
251 84 1 0.410000 1.700000 5.550000 -5.170000
252 84 1 0.410000 0.720000 6.300000 -4.090000
253 85 2 -0.820000 5.610000 2.220000 -7.150000
254 85 1 0.410000 5.990000 1.380000 -6.780000
255 85 1 0.410000 4.730000 2.410000 -6.710000
256 86 2 -0.820000 8.660000 4.540000 6.420000
257 86 1 0.410000 8.340000 5.260000 5.800000
258 86 1 0.410000 8.900000 3.730000 5.890000
259 87 2 -0.820000 -8.450000 0.390000 7.530000
260 87 1 0.410000 -9.170000 0.440000 6.840000
261 87 1 0.410000 -8.690000 -0.300000 8.220000
262 88 2 -0.820000 -4.330000 -6.890000 8.670000
263 88 1 0.410000 -4.880000 -7.730000 8.600000
264 88 1 0.410000 -4.070000 -6.600000 7.750000
265 89 2 -0.820000 -3.960000 5.900000 -8.700000
266 89 1 0.410000 -4.260000 4.950000 -8.630000
267 89 1 0.410000 -3.230000 6.060000 -8.040000
268 90 2 -0.820000 -0.050000 8.330000 3.770000
269 90 1 0.410000 0.370000 7.690000 4.410000
270 90 1 0.410000 -0.430000 7.820000 2.990000
271 91 2 -0.820000 4.880000 -4.770000 1.740000
272 91 1 0.410000 4.010000 -4.920000 2.210000
273 91 1 0.410000 4.710000 -4.510000 0.790000
274 92 2 -0.820000 -1.980000 -5.820000 6.570000
275 92 1 0.410000 -0.990000 -5.740000 6.710000
276 92 1 0.410000 -2.430000 -4.980000 6.880000
277 93 2 -0.820000 -4.720000 5.750000 0.780000
278 93 1 0.410000 -5.260000 5.540000 1.590000
279 93 1 0.410000 -3.810000 5.340000 0.870000
280 94 2 -0.820000 5.270000 2.560000 3.280000
281 94 1 0.410000 5.540000 1.970000 2.530000
282 94 1 0.410000 5.270000 3.510000 2.970000
283 95 2 -0.820000 -1.080000 -6.390000 -2.740000
284 95 1 0.410000 -0.170000 -6.780000 -2.870000
285 95 1 0.410000 -1.000000 -5.430000 -2.500000
286 96 2 -0.820000 -7.980000 -5.150000 -5.220000
287 96 1 0.410000 -8.780000 -5.380000 -4.670000
288 96 1 0.410000 -7.150000 -5.410000 -4.730000
289 97 2 -0.820000 -2.700000 -2.330000 -2.370000
290 97 1 0.410000 -2.430000 -1.990000 -3.270000
291 97 1 0.410000 -1.910000 -2.710000 -1.910000
292 98 2 -0.820000 -7.510000 -6.670000 -7.620000
293 98 1 0.410000 -7.910000 -6.230000 -6.810000
294 98 1 0.410000 -7.920000 -6.300000 -8.450000
295 99 2 -0.820000 -2.240000 -7.630000 -7.830000
296 99 1 0.410000 -2.190000 -6.820000 -7.240000
297 99 1 0.410000 -3.100000 -7.610000 -8.340000
298 100 2 -0.820000 9.150000 0.890000 -4.600000
299 100 1 0.410000 9.400000 0.690000 -5.550000
300 100 1 0.410000 9.870000 1.450000 -4.180000
301 101 2 -0.820000 -8.820000 -7.460000 -1.430000
302 101 1 0.410000 -9.810000 -7.400000 -1.330000
303 101 1 0.410000 -8.590000 -8.260000 -1.990000
304 102 2 -0.820000 7.050000 -8.120000 3.680000
305 102 1 0.410000 6.910000 -8.050000 4.670000
306 102 1 0.410000 7.890000 -8.630000 3.500000
307 103 2 -0.820000 4.100000 8.130000 -6.110000
308 103 1 0.410000 4.960000 8.250000 -5.610000
309 103 1 0.410000 3.680000 7.260000 -5.840000
310 104 2 -0.820000 -5.880000 3.860000 -6.000000
311 104 1 0.410000 -5.670000 4.600000 -5.360000
312 104 1 0.410000 -6.770000 4.030000 -6.430000
313 105 2 -0.820000 0.640000 -2.980000 -5.310000
314 105 1 0.410000 0.180000 -2.160000 -5.650000
315 105 1 0.410000 1.620000 -2.790000 -5.220000
316 106 2 -0.820000 3.670000 -7.620000 5.010000
317 106 1 0.410000 3.600000 -6.790000 4.450000
318 106 1 0.410000 3.710000 -8.420000 4.410000
319 107 2 -0.820000 5.660000 5.370000 8.650000
320 107 1 0.410000 5.780000 6.030000 7.910000
321 107 1 0.410000 6.120000 5.710000 9.480000
322 108 2 -0.820000 -6.100000 -5.140000 3.880000
323 108 1 0.410000 -5.600000 -4.370000 4.280000
324 108 1 0.410000 -7.050000 -5.120000 4.200000
325 109 2 -0.820000 -5.900000 -4.170000 -7.200000
326 109 1 0.410000 -5.430000 -4.040000 -6.330000
327 109 1 0.410000 -6.560000 -4.910000 -7.110000
328 110 2 -0.820000 -2.800000 6.390000 4.720000
329 110 1 0.410000 -3.110000 7.000000 5.450000
330 110 1 0.410000 -2.300000 6.910000 4.030000
331 111 2 -0.820000 3.540000 -3.520000 -5.330000
332 111 1 0.410000 3.330000 -3.960000 -6.200000
333 111 1 0.410000 4.510000 -3.260000 -5.300000
334 112 2 -0.820000 4.020000 7.510000 -2.640000
335 112 1 0.410000 4.700000 8.060000 -3.110000
336 112 1 0.410000 4.420000 6.630000 -2.370000
337 113 2 -0.820000 -2.750000 7.790000 -1.920000
338 113 1 0.410000 -3.670000 8.170000 -1.970000
339 113 1 0.410000 -2.150000 8.260000 -2.570000
340 114 2 -0.820000 -8.490000 1.050000 -0.920000
341 114 1 0.410000 -8.430000 1.900000 -1.440000
342 114 1 0.410000 -8.170000 0.290000 -1.490000
343 115 2 -0.820000 5.040000 0.500000 -1.220000
344 115 1 0.410000 4.620000 -0.070000 -1.920000
345 115 1 0.410000 4.380000 1.190000 -0.900000
346 116 2 -0.820000 5.730000 8.700000 -8.330000
347 116 1 0.410000 6.170000 9.590000 -8.420000
348 116 1 0.410000 5.100000 8.700000 -7.560000
349 117 2 -0.820000 -5.020000 8.620000 -8.170000
350 117 1 0.410000 -5.770000 8.620000 -8.830000
351 117 1 0.410000 -4.650000 7.700000 -8.080000
352 118 2 -0.820000 -6.530000 5.250000 2.750000
353 118 1 0.410000 -6.400000 4.410000 3.290000
354 118 1 0.410000 -6.820000 5.990000 3.350000
355 119 2 -0.820000 3.070000 2.130000 -6.310000
356 119 1 0.410000 2.840000 2.500000 -5.410000
357 119 1 0.410000 2.770000 1.180000 -6.370000
358 120 2 -0.820000 0.370000 -5.520000 -5.800000
359 120 1 0.410000 0.900000 -6.010000 -5.120000
360 120 1 0.410000 0.590000 -4.540000 -5.750000
361 121 2 -0.820000 7.320000 6.340000 -7.980000
362 121 1 0.410000 7.910000 6.080000 -8.740000
363 121 1 0.410000 7.040000 7.300000 -8.090000
364 122 2 -0.820000 -1.340000 -9.270000 -0.080000
365 122 1 0.410000 -1.800000 -9.340000 -0.970000
366 122 1 0.410000 -1.960000 -8.830000 0.580000
367 123 2 -0.820000 3.070000 0.630000 6.180000
368 123 1 0.410000 2.960000 1.570000 6.510000
369 123 1 0.410000 3.020000 -0.000000 6.950000
370 124 2 -0.820000 -2.400000 3.670000 3.740000
371 124 1 0.410000 -2.380000 2.910000 4.380000
372 124 1 0.410000 -2.880000 4.440000 4.140000
373 125 2 -0.820000 -8.390000 7.660000 -8.960000
374 125 1 0.410000 -8.240000 7.870000 -8.000000
375 125 1 0.410000 -8.690000 6.710000 -9.050000
376 126 2 -0.820000 -8.820000 -2.890000 -1.620000
377 126 1 0.410000 -9.020000 -2.450000 -2.500000
378 126 1 0.410000 -8.430000 -3.800000 -1.780000
379 127 2 -0.820000 -0.030000 -3.440000 -2.570000
380 127 1 0.410000 0.110000 -3.170000 -3.520000
381 127 1 0.410000 0.800000 -3.220000 -2.040000
382 128 2 -0.820000 3.500000 8.980000 -0.580000
383 128 1 0.410000 4.260000 9.420000 -0.100000
384 128 1 0.410000 3.850000 8.510000 -1.400000
385 129 2 -0.820000 -3.220000 2.740000 1.250000
386 129 1 0.410000 -3.830000 1.990000 1.480000
387 129 1 0.410000 -3.000000 3.260000 2.080000
388 130 2 -0.820000 -5.590000 8.380000 0.420000
389 130 1 0.410000 -5.250000 7.450000 0.570000
390 130 1 0.410000 -5.410000 8.650000 -0.530000
391 131 2 -0.820000 -7.940000 -5.290000 8.490000
392 131 1 0.410000 -7.870000 -6.130000 7.940000
393 131 1 0.410000 -7.320000 -4.600000 8.130000
394 132 2 -0.820000 3.190000 8.100000 -9.130000
395 132 1 0.410000 4.120000 8.460000 -9.080000
396 132 1 0.410000 3.130000 7.250000 -8.610000
397 133 2 -0.820000 3.390000 5.090000 -8.560000
398 133 1 0.410000 2.870000 4.260000 -8.730000
399 133 1 0.410000 4.160000 5.140000 -9.200000
400 134 2 -0.820000 5.110000 4.150000 -0.540000
401 134 1 0.410000 4.930000 4.600000 0.340000
402 134 1 0.410000 5.530000 4.800000 -1.170000
403 135 2 -0.820000 -7.240000 3.800000 -1.840000
404 135 1 0.410000 -7.690000 4.430000 -1.200000
405 135 1 0.410000 -6.310000 4.110000 -2.010000
406 136 2 -0.820000 -7.020000 2.070000 -3.850000
407 136 1 0.410000 -7.020000 2.710000 -3.080000
408 136 1 0.410000 -6.740000 2.550000 -4.680000
409 137 2 -0.820000 0.080000 -5.360000 2.000000
410 137 1 0.410000 -0.850000 -5.150000 1.690000
411 137 1 0.410000 0.180000 -6.350000 2.130000
412 138 2 -0.820000 0.880000 -0.610000 9.270000
413 138 1 0.410000 0.460000 -1.470000 9.000000
414 138 1 0.410000 1.820000 -0.580000 8.930000
415 139 2 -0.820000 5.040000 -2.940000 9.100000
416 139 1 0.410000 5.700000 -2.200000 9.190000
417 139 1 0.410000 5.480000 -3.730000 8.680000
418 140 2 -0.820000 -8.600000 7.960000 -6.240000
419 140 1 0.410000 -8.190000 7.640000 -5.380000
420 140 1 0.410000 -9.560000 7.690000 -6.270000
421 141 2 -0.820000 0.400000 5.440000 -7.480000
422 141 1 0.410000 1.250000 5.110000 -7.890000
423 141 1 0.410000 0.530000 5.590000 -6.500000
424 142 2 -0.820000 1.890000 5.200000 -1.400000
425 142 1 0.410000 2.480000 4.800000 -2.100000
426 142 1 0.410000 1.310000 5.910000 -1.810000
427 143 2 -0.820000 -4.930000 -9.120000 -2.020000
428 143 1 0.410000 -4.540000 -8.230000 -1.820000
429 143 1 0.410000 -4.830000 -9.320000 -2.990000
430 144 2 -0.820000 8.150000 5.720000 3.250000
431 144 1 0.410000 8.220000 4.830000 2.790000
432 144 1 0.410000 7.210000 6.060000 3.170000
433 145 2 -0.820000 -2.050000 6.040000 -6.560000
434 145 1 0.410000 -2.430000 5.350000 -5.940000
435 145 1 0.410000 -1.230000 5.680000 -7.000000
436 146 2 -0.820000 2.520000 -2.980000 -1.180000
437 146 1 0.410000 2.220000 -2.410000 -0.420000
438 146 1 0.410000 2.450000 -3.950000 -0.920000
439 147 2 -0.820000 6.710000 4.640000 -5.930000
440 147 1 0.410000 6.370000 3.750000 -6.230000
441 147 1 0.410000 6.970000 5.180000 -6.730000
442 148 2 -0.820000 9.300000 -1.840000 -3.970000
443 148 1 0.410000 9.060000 -2.020000 -4.920000
444 148 1 0.410000 9.600000 -0.900000 -3.870000
445 149 2 -0.820000 4.730000 5.000000 1.910000
446 149 1 0.410000 5.340000 5.800000 1.950000
447 149 1 0.410000 3.780000 5.310000 1.980000
448 150 2 -0.820000 1.590000 -7.250000 -3.960000
449 150 1 0.410000 1.810000 -7.860000 -3.200000
450 150 1 0.410000 1.690000 -7.740000 -4.820000
451 151 2 -0.820000 -5.150000 -8.030000 -6.280000
452 151 1 0.410000 -4.910000 -8.660000 -7.020000
453 151 1 0.410000 -6.050000 -7.630000 -6.460000
454 152 2 -0.820000 -5.600000 8.550000 3.090000
455 152 1 0.410000 -6.460000 8.240000 3.510000
456 152 1 0.410000 -5.640000 8.410000 2.100000
457 153 2 -0.820000 -1.030000 -1.150000 -7.080000
458 153 1 0.410000 -0.420000 -0.850000 -7.810000
459 153 1 0.410000 -1.410000 -2.040000 -7.300000
460 154 2 -0.820000 -6.100000 -1.310000 -7.340000
461 154 1 0.410000 -5.260000 -1.260000 -7.880000
462 154 1 0.410000 -6.330000 -2.270000 -7.160000
463 155 2 -0.820000 0.830000 -6.040000 -8.400000
464 155 1 0.410000 0.780000 -6.050000 -7.400000
465 155 1 0.410000 0.000000 -6.450000 -8.780000
466 156 2 -0.820000 6.880000 -2.000000 -1.460000
467 156 1 0.410000 6.320000 -1.190000 -1.370000
468 156 1 0.410000 7.400000 -1.960000 -2.320000
469 157 2 -0.820000 9.030000 0.860000 1.330000
470 157 1 0.410000 9.540000 0.870000 0.470000
471 157 1 0.410000 9.590000 0.440000 2.040000
472 158 2 -0.820000 -1.360000 1.350000 5.230000
473 158 1 0.410000 -0.630000 1.180000 4.560000
474 158 1 0.410000 -1.670000 0.480000 5.610000
475 159 2 -0.820000 -4.740000 -2.890000 4.770000
476 159 1 0.410000 -4.070000 -2.770000 4.030000
477 159 1 0.410000 -5.140000 -2.000000 5.000000
478 160 2 -0.820000 1.300000 -0.680000 -0.110000
479 160 1 0.410000 0.890000 -1.420000 0.420000
480 160 1 0.410000 1.940000 -0.170000 0.470000
481 161 2 -0.820000 -5.820000 9.270000 6.720000
482 161 1 0.410000 -5.220000 8.460000 6.740000
483 161 1 0.410000 -5.420000 9.960000 6.120000
484 162 2 -0.820000 8.300000 -5.890000 -4.400000
485 162 1 0.410000 8.250000 -5.560000 -3.450000
486 162 1 0.410000 7.440000 -5.700000 -4.860000
487 163 2 -0.820000 6.720000 -2.460000 1.540000
488 163 1 0.410000 6.810000 -2.360000 0.550000
489 163 1 0.410000 6.320000 -3.350000 1.750000
490 164 2 -0.820000 -2.120000 -1.420000 -4.680000
491 164 1 0.410000 -1.590000 -1.320000 -5.520000
492 164 1 0.410000 -2.390000 -0.520000 -4.340000
493 165 2 -0.820000 -0.210000 1.750000 -8.990000
494 165 1 0.410000 0.180000 0.900000 -9.350000
495 165 1 0.410000 -1.190000 1.770000 -9.180000
496 166 2 -0.820000 2.630000 3.260000 7.200000
497 166 1 0.410000 1.840000 3.770000 6.860000
498 166 1 0.410000 2.540000 3.110000 8.180000
499 167 2 -0.820000 -6.680000 -2.500000 0.310000
500 167 1 0.410000 -6.620000 -3.430000 0.680000
501 167 1 0.410000 -7.270000 -2.500000 -0.490000
502 168 2 -0.820000 8.220000 -8.600000 -4.900000
503 168 1 0.410000 8.620000 -8.610000 -5.820000
504 168 1 0.410000 8.320000 -7.680000 -4.500000
505 169 2 -0.820000 9.160000 9.100000 2.910000
506 169 1 0.410000 9.790000 9.480000 2.230000
507 169 1 0.410000 9.560000 8.270000 3.300000
508 170 2 -0.820000 -3.580000 -2.550000 0.440000
509 170 1 0.410000 -4.500000 -2.180000 0.510000
510 170 1 0.410000 -3.200000 -2.350000 -0.460000
511 171 2 -0.820000 3.720000 -5.740000 -3.720000
512 171 1 0.410000 3.590000 -4.810000 -4.060000
513 171 1 0.410000 2.880000 -6.260000 -3.850000
514 172 2 -0.820000 -2.480000 -5.700000 -5.730000
515 172 1 0.410000 -1.880000 -5.670000 -4.930000
516 172 1 0.410000 -3.230000 -5.060000 -5.600000
517 173 2 -0.820000 -8.230000 -7.640000 6.960000
518 173 1 0.410000 -8.930000 -8.110000 7.500000
519 173 1 0.410000 -7.640000 -8.320000 6.530000
520 174 2 -0.820000 -8.480000 2.360000 -8.910000
521 174 1 0.410000 -8.560000 2.000000 -9.840000
522 174 1 0.410000 -8.500000 1.600000 -8.260000
523 175 2 -0.820000 5.900000 -3.750000 4.910000
524 175 1 0.410000 6.320000 -4.330000 4.210000
525 175 1 0.410000 5.460000 -2.960000 4.470000
526 176 2 -0.820000 -1.530000 3.850000 -4.810000
527 176 1 0.410000 -0.800000 4.540000 -4.770000
528 176 1 0.410000 -1.250000 3.100000 -5.400000
529 177 2 -0.820000 2.550000 -5.140000 2.900000
530 177 1 0.410000 1.590000 -5.130000 2.630000
531 177 1 0.410000 2.670000 -4.610000 3.740000
532 178 2 -0.820000 1.050000 -8.490000 -1.360000
533 178 1 0.410000 0.280000 -8.820000 -0.820000
534 178 1 0.410000 1.900000 -8.790000 -0.940000
535 179 2 -0.820000 6.720000 2.030000 -3.730000
536 179 1 0.410000 7.620000 1.870000 -4.130000
537 179 1 0.410000 6.800000 2.080000 -2.740000
538 180 2 -0.820000 0.750000 3.450000 0.330000
539 180 1 0.410000 -0.170000 3.170000 0.040000
540 180 1 0.410000 1.060000 4.220000 -0.230000
541 181 2 -0.820000 -4.220000 8.560000 -4.640000
542 181 1 0.410000 -4.790000 9.080000 -5.270000
543 181 1 0.410000 -3.260000 8.680000 -4.880000
544 182 2 -0.820000 0.720000 1.660000 3.180000
545 182 1 0.410000 0.550000 2.490000 2.640000
546 182 1 0.410000 1.620000 1.290000 2.960000
547 183 2 -0.820000 -6.790000 -5.270000 1.190000
548 183 1 0.410000 -7.780000 -5.380000 1.210000
549 183 1 0.410000 -6.450000 -5.120000 2.120000
550 184 2 -0.820000 6.130000 8.420000 -4.310000
551 184 1 0.410000 6.690000 9.230000 -4.480000
552 184 1 0.410000 6.720000 7.620000 -4.280000
553 185 2 -0.820000 -3.690000 -0.950000 -9.030000
554 185 1 0.410000 -3.360000 -0.310000 -9.720000
555 185 1 0.410000 -3.030000 -1.010000 -8.280000
556 186 2 -0.820000 7.160000 5.650000 -1.540000
557 186 1 0.410000 7.350000 6.300000 -0.800000
558 186 1 0.410000 7.760000 4.850000 -1.450000
559 187 2 -0.820000 -4.120000 -6.420000 -2.290000
560 187 1 0.410000 -4.210000 -6.520000 -1.300000
561 187 1 0.410000 -3.160000 -6.490000 -2.550000
562 188 2 -0.820000 3.900000 -1.210000 -3.020000
563 188 1 0.410000 2.990000 -0.800000 -3.040000
564 188 1 0.410000 3.830000 -2.150000 -2.700000
565 189 2 -0.820000 -1.880000 8.830000 -6.080000
566 189 1 0.410000 -2.150000 7.940000 -6.450000
567 189 1 0.410000 -1.870000 9.510000 -6.810000
568 190 2 -0.820000 -6.370000 3.250000 4.490000
569 190 1 0.410000 -5.720000 2.510000 4.380000
570 190 1 0.410000 -6.170000 3.750000 5.330000
571 191 2 -0.820000 5.940000 7.450000 6.520000
572 191 1 0.410000 6.440000 8.300000 6.330000
573 191 1 0.410000 5.060000 7.470000 6.040000
574 192 2 -0.820000 -0.850000 3.420000 -2.200000
575 192 1 0.410000 -1.020000 3.730000 -3.140000
576 192 1 0.410000 -1.690000 3.050000 -1.820000
577 193 2 -0.820000 -1.320000 -9.280000 -3.450000
578 193 1 0.410000 -0.940000 -8.370000 -3.300000
579 193 1 0.410000 -1.400000 -9.450000 -4.440000
580 194 2 -0.820000 8.590000 -4.880000 0.160000
581 194 1 0.410000 8.130000 -4.730000 1.040000
582 194 1 0.410000 9.030000 -4.030000 -0.140000
583 195 2 -0.820000 6.610000 -0.720000 -9.090000
584 195 1 0.410000 6.150000 0.160000 -9.220000
585 195 1 0.410000 7.600000 -0.600000 -9.160000
586 196 2 -0.820000 -4.540000 -0.110000 -1.420000
587 196 1 0.410000 -5.500000 -0.220000 -1.690000
588 196 1 0.410000 -3.980000 -0.780000 -1.900000
589 197 2 -0.820000 8.590000 -9.060000 8.610000
590 197 1 0.410000 9.130000 -9.750000 9.090000
591 197 1 0.410000 8.270000 -8.370000 9.270000
592 198 2 -0.820000 -7.790000 -8.780000 0.870000
593 198 1 0.410000 -8.020000 -8.250000 0.050000
594 198 1 0.410000 -6.980000 -9.340000 0.680000
595 199 2 -0.820000 -0.010000 -2.930000 8.510000
596 199 1 0.410000 -0.720000 -3.050000 7.810000
597 199 1 0.410000 0.000000 -3.720000 9.110000
598 200 2 -0.820000 2.210000 -5.480000 -0.180000
599 200 1 0.410000 1.560000 -6.210000 -0.390000
600 200 1 0.410000 2.250000 -5.340000 0.800000
601 201 2 -0.820000 0.790000 -6.220000 6.530000
602 201 1 0.410000 0.780000 -6.690000 7.410000
603 201 1 0.410000 1.610000 -6.500000 6.020000
604 202 2 -0.820000 6.720000 -4.710000 -2.380000
605 202 1 0.410000 5.940000 -5.210000 -2.000000
606 202 1 0.410000 6.690000 -3.760000 -2.070000
607 203 2 -0.820000 -0.380000 1.920000 -6.350000
608 203 1 0.410000 -0.420000 1.020000 -5.910000
609 203 1 0.410000 -0.350000 1.810000 -7.340000
610 204 2 -0.820000 4.280000 4.240000 5.200000
611 204 1 0.410000 4.580000 3.520000 4.580000
612 204 1 0.410000 3.890000 3.840000 6.030000
613 205 2 -0.820000 -1.570000 -3.750000 -7.580000
614 205 1 0.410000 -2.500000 -4.000000 -7.850000
615 205 1 0.410000 -1.310000 -4.250000 -6.760000
616 206 2 -0.820000 3.170000 5.470000 -5.820000
617 206 1 0.410000 3.550000 4.880000 -5.100000
618 206 1 0.410000 3.570000 5.210000 -6.700000
619 207 2 -0.820000 8.120000 -2.760000 6.870000
620 207 1 0.410000 8.440000 -2.660000 5.930000
621 207 1 0.410000 7.330000 -3.380000 6.890000
622 208 2 -0.820000 -4.380000 2.140000 -7.500000
623 208 1 0.410000 -3.860000 1.490000 -6.950000
624 208 1 0.410000 -4.870000 2.770000 -6.890000